HEADER
"PSFversion" "1.00"
"M0n" "analogLib_pmos4_spectre"
"V1n Vdsn" "analogLib_vdc_spectre"
