HEADER
"PSFversion" "1.00"
"simulator" "spectre"
"version" "16.1.0.479.isr9"
"date" "3:22:57 PM, Sat Feb 17, 2018"
"design" "// Generated for: spectre"
"analysis type" "info"
"analysis name" "designParamVals"
"analysis description" "Circuit Information"
"xVecSorted" "unknown"
"tolerance.relative" 0.00100000
TYPE
"top-level" STRUCT(
"temp" FLOAT DOUBLE
"tnom" FLOAT DOUBLE
"time" FLOAT DOUBLE
"len" FLOAT DOUBLE
"vds_sweep" FLOAT DOUBLE
"Vbsweep" FLOAT DOUBLE
"Vsweep" FLOAT DOUBLE
) PROP(
"key" "parameters"
)
VALUE
"top-level" "top-level" (
2.700000000000000e+01
2.700000000000000e+01
0.000000000000000e+00
3.200000000000000e-08
-1.200000000000000e+00
0.000000000000000e+00
1.000000000000000e+00
)
END
