HEADER
"PSFversion" "1.00"
"design" "(\"ajgrosze_scratch\" \"pmos_vth\" \"schematic\" \"\")"
"simulator" "spectre"
"temperature" "27"
"host" ""
"date" "Feb 17 15:22:57 2018"
"title" ""
"analysisList" "()"
END
