HEADER
"PSFversion" "1.00"
"design" "(\"ajgrosze_scratch\" \"nmos_vth\" \"schematic\" \"\")"
"simulator" "spectre"
"temperature" "27"
"host" ""
"date" "Feb 17 10:46:24 2018"
"title" ""
"analysisList" "()"
END
