HEADER
"PSFversion" "1.00"
"design" "(\"ajgrosze_scratch\" \"single_inv_sim\" \"schematic\" \"\")"
"simulator" "spectre"
"temperature" "27"
"host" ""
"date" "Mar  8 21:51:59 2018"
"title" ""
"analysisList" "()"
END
