HEADER
"PSFversion" "1.00"
"Time Stamp" "Mar  8 21:52:00 2018"
TYPE
"variable" STRUCT(
"value" FLOAT DOUBLE
) PROP( "key" "element" )
VALUE
"vdc" "variable" ( 1.2 ) PROP( )
"temp" "variable" ( 27 ) PROP( )
END
