HEADER
"PSFversion" "1.00"
"Man Mbn Mcn" "analogLib_nmos4_spectre"
"Vcn Vbn V0n Van" "analogLib_vdc_spectre"
