HEADER
"PSFversion" "1.00"
"M0n" "analogLib_nmos4_spectre"
"M1n" "analogLib_pmos4_spectre"
"inv" ":1v"
"outv" ":2v"
"vddv" ":3v"
