HEADER
"PSFversion" "1.00"
"I0n" "inv"
"V1n V0n" "analogLib_vdc_spectre"
