HEADER
"PSFversion" "1.00"
"__NEXT_FILE__" "single_inv_sim"
