HEADER
"PSFversion" "1.00"
"design" "(\"ajgrosze_scratch\" \"q1_an\" \"schematic\" \"\")"
"simulator" "spectre"
"temperature" "27"
"host" ""
"date" "Feb 12 22:30:46 2018"
"title" ""
"analysisList" "()"
END
