HEADER
"PSFversion" "1.00"
"Time Stamp" "Feb 12 22:30:46 2018"
TYPE
"variable" STRUCT(
"value" FLOAT DOUBLE
) PROP( "key" "element" )
VALUE
"temp" "variable" ( 27 ) PROP( )
END
