HEADER
"PSFversion" "1.00"
"M0n" "analogLib_nmos4_spectre"
"Vbsn Vdsn" "analogLib_vdc_spectre"
