HEADER
"PSFversion" "1.00"
"simulator" "spectre"
"version" "16.1.0.479.isr9"
"date" "6:51:08 PM, Thur Mar 8, 2018"
"design" "// Generated for: spectre"
"analysis type" "info"
"analysis name" "designParamVals"
"analysis description" "Circuit Information"
"xVecSorted" "unknown"
"tolerance.relative" 0.00100000
TYPE
"top-level" STRUCT(
"temp" FLOAT DOUBLE
"tnom" FLOAT DOUBLE
"time" FLOAT DOUBLE
"vdc" FLOAT DOUBLE
"vsource" FLOAT DOUBLE
) PROP(
"key" "parameters"
)
VALUE
"top-level" "top-level" (
2.700000000000000e+01
2.700000000000000e+01
0.000000000000000e+00
0.000000000000000e+00
9.200000000000000e-01
)
END
