HEADER
"PSFversion" "1.00"
"design" "(\"ajgrosze_scratch\" \"inv_chain\" \"schematic\" \"\")"
"simulator" "spectre"
"temperature" "27"
"host" ""
"date" "Mar  8 18:51:00 2018"
"title" ""
"analysisList" "()"
END
