HEADER
"PSFversion" "1.00"
"design" "(\"ajgrosze_scratch\" \"nmos_stack_compare\" \"schematic\" \"\")"
"simulator" "spectre"
"temperature" "27"
"host" ""
"date" "Feb 17 18:32:53 2018"
"title" ""
"analysisList" "()"
END
