HEADER
"PSFversion" "1.00"
"Time Stamp" "Feb 17 18:32:53 2018"
TYPE
"variable" STRUCT(
"value" FLOAT DOUBLE
) PROP( "key" "element" )
VALUE
"vgs" "variable" ( 0 ) PROP( )
"temp" "variable" ( 27 ) PROP( )
END
