HEADER
"PSFversion" "1.00"
"Run Generator" "drlRun rev. 1.0"
"Run Time Stamp" "Feb 10 23:59:01 2018"
"simulator" "spectre"
TYPE
"runObject" STRUCT(
"logName" ARRAY( * ) STRING *
"parent" STRING *
"sweepVariable" ARRAY( * ) STRING *
) PROP( "key" "runObject" )
VALUE
"Run1" "runObject" (
(
"logFile"
)
""
()
)
END
