HEADER
"PSFversion" "1.00"
"V2n V1n" "analogLib_vdc_spectre"
"V0n" "analogLib_vpulse_spectre"
"inv9n inv8n inv7n inv6n inv5n inv4n inv3n inv2n inv1n inv0n" "inv"
