HEADER
"PSFversion" "1.00"
"__NEXT_FILE__" "nmos_stack_compare"
