HEADER
"PSFversion" "1.00"
"design" "(\"ajgrosze_scratch\" \"nmos_3stack_sim\" \"schematic\" \"\")"
"simulator" "spectre"
"temperature" "27"
"host" ""
"date" "Feb 28 22:00:46 2018"
"title" ""
"analysisList" "()"
END
