HEADER
"PSFversion" "1.00"
"Time Stamp" "Feb 28 22:00:46 2018"
TYPE
"variable" STRUCT(
"value" FLOAT DOUBLE
) PROP( "key" "element" )
VALUE
"vgc" "variable" ( 0 ) PROP( )
"vgb" "variable" ( 1.2 ) PROP( )
"vga" "variable" ( 0 ) PROP( )
"temp" "variable" ( 27 ) PROP( )
END
